REMARK  Name = input/ligand.pdb
REMARK  9 active torsions:
REMARK  status: ('A' for Active; 'I' for Inactive)
REMARK    1  A    between atoms: O_1  and  C_10
REMARK    2  A    between atoms: O_1  and  C_12
REMARK    3  A    between atoms: C_7  and  C_9
REMARK    4  A    between atoms: C_8  and  C_10
REMARK    5  A    between atoms: C_10  and  C_28
REMARK    6  A    between atoms: C_12  and  C_23
REMARK    7  A    between atoms: C_12  and  C_24
REMARK    8  A    between atoms: C_12  and  C_25
REMARK    9  A    between atoms: C_18  and  C_29
REMARK                            x       y       z     vdW  Elec       q    Type
REMARK                         _______ _______ _______ _____ _____    ______ ____
ROOT
ATOM      1  N   UNL     1      -3.936   0.113  -0.363  0.00  0.00    +0.000 NA
ATOM      2  C   UNL     1      -1.230   0.363   0.234  0.00  0.00    +0.000 A 
ATOM      3  C   UNL     1      -1.719  -0.838  -0.260  0.00  0.00    +0.000 A 
ATOM      4  C   UNL     1      -2.095   1.448   0.433  0.00  0.00    +0.000 A 
ATOM      5  C   UNL     1      -3.069  -0.910  -0.540  0.00  0.00    +0.000 A 
ATOM      6  C   UNL     1      -3.459   1.277   0.117  0.00  0.00    +0.000 A 
ATOM      7  C   UNL     1      -1.631   2.677   0.932  0.00  0.00    +0.000 A 
ATOM      8  C   UNL     1      -3.664  -2.171  -1.076  0.00  0.00    +0.000 C 
ATOM      9  C   UNL     1      -4.317   2.355   0.314  0.00  0.00    +0.000 A 
ATOM     10  C   UNL     1      -2.511   3.738   1.119  0.00  0.00    +0.000 A 
ATOM     11  C   UNL     1      -3.856   3.577   0.810  0.00  0.00    +0.000 A 
ENDROOT
BRANCH   2  14
ATOM     12  O   UNL     1       4.192   0.682   1.599  0.00  0.00    +0.000 OA
ATOM     13  N   UNL     1       0.673   1.172  -1.684  0.00  0.00    +0.000 NA
ATOM     14  C   UNL     1       0.188   0.458   0.535  0.00  0.00    +0.000 A 
ATOM     15  C   UNL     1       2.452   0.943  -0.084  0.00  0.00    +0.000 A 
ATOM     16  C   UNL     1       1.092   0.869  -0.441  0.00  0.00    +0.000 A 
ATOM     17  C   UNL     1       3.384   1.324  -1.057  0.00  0.00    +0.000 A 
ATOM     18  C   UNL     1       2.872   0.621   1.217  0.00  0.00    +0.000 A 
ATOM     19  C   UNL     1       4.838   1.340  -0.679  0.00  0.00    +0.000 C 
ATOM     20  C   UNL     1       0.606   0.115   1.825  0.00  0.00    +0.000 A 
ATOM     21  C   UNL     1       4.949   1.617   0.817  0.00  0.00    +0.000 C 
ATOM     22  C   UNL     1       1.952   0.189   2.168  0.00  0.00    +0.000 A 
ATOM     23  C   UNL     1       2.957   1.617  -2.346  0.00  0.00    +0.000 A 
ATOM     24  C   UNL     1       1.602   1.534  -2.601  0.00  0.00    +0.000 A 
ENDBRANCH   2  14
BRANCH   3  25
ATOM     25  C   UNL     1      -0.834  -2.019  -0.487  0.00  0.00    +0.000 C 
BRANCH  25  28
ATOM     26  O   UNL     1      -1.026  -1.481  -2.821  0.00  0.00    +0.000 OA
ATOM     27  O   UNL     1       0.872  -2.524  -2.155  0.00  0.00    +0.000 OA
ATOM     28  C   UNL     1      -0.227  -2.056  -1.885  0.00  0.00    +0.000 C 
ENDBRANCH  25  28
BRANCH  25  29
ATOM     29  O   UNL     1       0.219  -2.028   0.474  0.00  0.00    +0.000 OA
BRANCH  29  30
ATOM     30  C   UNL     1       0.186  -3.204   1.268  0.00  0.00    +0.000 C 
ATOM     31  C   UNL     1       0.341  -4.416   0.350  0.00  0.00    +0.000 C 
ATOM     32  C   UNL     1       1.349  -3.125   2.255  0.00  0.00    +0.000 C 
ATOM     33  C   UNL     1      -1.148  -3.252   2.012  0.00  0.00    +0.000 C 
ENDBRANCH  29  30
ENDBRANCH  25  29
ENDBRANCH   3  25
TORSDOF 5
