REMARK  Name = DRV_ligand.pdb
REMARK  16 active torsions:
REMARK  status: ('A' for Active; 'I' for Inactive)
REMARK    1  A    between atoms: N1_1  and  C2_2
REMARK    2  A    between atoms: C5_5  and  S8_8
REMARK    3  A    between atoms: S8_8  and  N11_11
REMARK    4  A    between atoms: N11_11  and  C12_12
REMARK    5  A    between atoms: N11_11  and  C16_16
REMARK    6  A    between atoms: C12_12  and  C13_13
REMARK    7  A    between atoms: C13_13  and  C14_14
REMARK    8  A    between atoms: C13_13  and  C15_15
REMARK    9  A    between atoms: C16_16  and  C17_17
REMARK   10  A    between atoms: C17_17  and  O18_18
REMARK   11  A    between atoms: C17_17  and  C19_19
REMARK   12  A    between atoms: C19_19  and  N20_20
REMARK   13  A    between atoms: C19_19  and  C32_32
REMARK   14  A    between atoms: C21_21  and  O23_23
REMARK   15  A    between atoms: O23_23  and  C24_24
REMARK   16  A    between atoms: C32_32  and  C38_38
REMARK                            x       y       z     vdW  Elec       q    Type
REMARK                         _______ _______ _______ _____ _____    ______ ____
ROOT
ATOM      1  C17 LIG A 200       9.848 -17.452   0.337  0.00  0.00    +0.000 C 
ENDROOT
BRANCH   1   2
ATOM      2  O18 LIG A 200      10.107 -18.840   0.130  0.00  0.00    +0.000 OA
ATOM      3  H   LIG A 200       9.479 -19.367   0.648  0.00  0.00    +0.000 HD
ENDBRANCH   1   2
BRANCH   1   4
ATOM      4  C16 LIG A 200      10.026 -17.080   1.803  0.00  0.00    +0.000 C 
BRANCH   4   5
ATOM      5  N11 LIG A 200       9.990 -15.610   1.907  0.00  0.00    +0.000 NA
BRANCH   5   6
ATOM      6  S8  LIG A 200       8.829 -15.114   2.927  0.00  0.00    +0.000 S 
ATOM      7  O9  LIG A 200       7.647 -15.891   2.703  0.00  0.00    +0.000 OA
ATOM      8  O10 LIG A 200       8.550 -13.760   2.611  0.00  0.00    +0.000 OA
BRANCH   6  12
ATOM      9  C2  LIG A 200       9.727 -15.541   7.202  0.00  0.00    +0.000 A 
ATOM     10  C3  LIG A 200      10.124 -14.382   6.537  0.00  0.00    +0.000 A 
ATOM     11  C4  LIG A 200       9.847 -14.231   5.181  0.00  0.00    +0.000 A 
ATOM     12  C5  LIG A 200       9.185 -15.241   4.482  0.00  0.00    +0.000 A 
ATOM     13  C6  LIG A 200       8.782 -16.382   5.161  0.00  0.00    +0.000 A 
ATOM     14  C7  LIG A 200       9.055 -16.536   6.511  0.00  0.00    +0.000 A 
BRANCH   9  15
ATOM     15  N1  LIG A 200       9.980 -15.709   8.523  0.00  0.00    +0.000 N 
ATOM     16  H   LIG A 200      10.457 -15.010   9.026  0.00  0.00    +0.000 HD
ATOM     17  H   LIG A 200       9.687 -16.530   8.980  0.00  0.00    +0.000 HD
ENDBRANCH   9  15
ENDBRANCH   6  12
ENDBRANCH   5   6
BRANCH   5  18
ATOM     18  C12 LIG A 200      11.304 -15.076   2.300  0.00  0.00    +0.000 C 
BRANCH  18  19
ATOM     19  C13 LIG A 200      11.984 -14.273   1.189  0.00  0.00    +0.000 C 
ATOM     20  C14 LIG A 200      12.400 -15.156   0.028  0.00  0.00    +0.000 C 
ATOM     21  C15 LIG A 200      11.140 -13.105   0.691  0.00  0.00    +0.000 C 
ENDBRANCH  18  19
ENDBRANCH   5  18
ENDBRANCH   4   5
ENDBRANCH   1   4
BRANCH   1  22
ATOM     22  C19 LIG A 200       8.444 -17.082  -0.126  0.00  0.00    +0.000 C 
BRANCH  22  23
ATOM     23  N20 LIG A 200       8.460 -17.308  -1.553  0.00  0.00    +0.000 N 
ATOM     24  C21 LIG A 200       8.364 -16.327  -2.442  0.00  0.00    +0.000 C 
ATOM     25  O22 LIG A 200       8.262 -15.149  -2.157  0.00  0.00    +0.000 OA
ATOM     26  H   LIG A 200       8.546 -18.232  -1.881  0.00  0.00    +0.000 HD
BRANCH  24  27
ATOM     27  O23 LIG A 200       8.406 -16.745  -3.828  0.00  0.00    +0.000 OA
BRANCH  27  28
ATOM     28  C24 LIG A 200       7.977 -15.839  -4.824  0.00  0.00    +0.000 C 
ATOM     29  C25 LIG A 200       8.953 -16.084  -5.956  0.00  0.00    +0.000 C 
ATOM     30  O26 LIG A 200       8.451 -17.259  -6.599  0.00  0.00    +0.000 OA
ATOM     31  C27 LIG A 200       7.031 -17.353  -6.418  0.00  0.00    +0.000 C 
ATOM     32  O28 LIG A 200       6.659 -18.631  -5.890  0.00  0.00    +0.000 OA
ATOM     33  C29 LIG A 200       5.978 -18.519  -4.642  0.00  0.00    +0.000 C 
ATOM     34  C30 LIG A 200       5.764 -17.035  -4.395  0.00  0.00    +0.000 C 
ATOM     35  C31 LIG A 200       6.656 -16.317  -5.383  0.00  0.00    +0.000 C 
ENDBRANCH  27  28
ENDBRANCH  24  27
ENDBRANCH  22  23
BRANCH  22  36
ATOM     36  C32 LIG A 200       7.414 -18.061   0.418  0.00  0.00    +0.000 C 
BRANCH  36  42
ATOM     37  C33 LIG A 200       5.428 -16.624  -0.067  0.00  0.00    +0.000 A 
ATOM     38  C34 LIG A 200       4.211 -16.395  -0.696  0.00  0.00    +0.000 A 
ATOM     39  C35 LIG A 200       3.663 -17.356  -1.534  0.00  0.00    +0.000 A 
ATOM     40  C36 LIG A 200       4.337 -18.558  -1.731  0.00  0.00    +0.000 A 
ATOM     41  C37 LIG A 200       5.554 -18.797  -1.104  0.00  0.00    +0.000 A 
ATOM     42  C38 LIG A 200       6.098 -17.823  -0.272  0.00  0.00    +0.000 A 
ENDBRANCH  36  42
ENDBRANCH  22  36
ENDBRANCH   1  22
TORSDOF 14
