REMARK  Name = DTG_ligand.pdb
REMARK  5 active torsions:
REMARK  status: ('A' for Active; 'I' for Inactive)
REMARK    1  A    between atoms: CAA_1  and  CBA_25
REMARK    2  A    between atoms: CAN_8  and  CAV_14
REMARK    3  A    between atoms: CAN_8  and  NAP_19
REMARK    4  A    between atoms: CAR_10  and  CAX_16
REMARK    5  A    between atoms: CAW_15  and  OAE_23
REMARK                            x       y       z     vdW  Elec       q    Type
REMARK                         _______ _______ _______ _____ _____    ______ ____
ROOT
ATOM      1  CAA DLU F 101     136.123 145.057 116.152  0.00  0.00    +0.000 C 
ATOM      2  CAK DLU F 101     140.442 145.700 120.828  0.00  0.00    +0.000 A 
ATOM      3  CAL DLU F 101     135.353 146.889 118.592  0.00  0.00    +0.000 C 
ATOM      4  CAM DLU F 101     134.850 145.475 118.218  0.00  0.00    +0.000 C 
ATOM      5  CAO DLU F 101     139.010 146.395 118.990  0.00  0.00    +0.000 C 
ATOM      6  CAS DLU F 101     137.659 143.947 119.249  0.00  0.00    +0.000 C 
ATOM      7  CAW DLU F 101     139.159 143.341 121.078  0.00  0.00    +0.000 A 
ATOM      8  CAX DLU F 101     140.872 144.826 121.800  0.00  0.00    +0.000 A 
ATOM      9  CAY DLU F 101     138.733 144.228 120.089  0.00  0.00    +0.000 A 
ATOM     10  CAZ DLU F 101     140.212 143.614 121.927  0.00  0.00    +0.000 A 
ATOM     11  OAC DLU F 101     137.180 142.824 119.216  0.00  0.00    +0.000 OA
ATOM     12  OAD DLU F 101     140.529 142.784 122.760  0.00  0.00    +0.000 OA
ATOM     13  OAQ DLU F 101     136.642 146.913 119.292  0.00  0.00    +0.000 OA
ATOM     14  CBA DLU F 101     135.958 144.649 117.612  0.00  0.00    +0.000 C 
ATOM     15  CBB DLU F 101     137.602 146.273 118.472  0.00  0.00    +0.000 C 
ATOM     16  NBC DLU F 101     137.111 144.902 118.482  0.00  0.00    +0.000 N 
ATOM     17  NBD DLU F 101     139.379 145.391 119.990  0.00  0.00    +0.000 N 
ENDROOT
BRANCH   8  18
ATOM     18  CAR DLU F 101     141.939 145.250 122.579  0.00  0.00    +0.000 C 
ATOM     19  NAP DLU F 101     142.422 144.457 123.532  0.00  0.00    +0.000 N 
ATOM     20  OAB DLU F 101     142.397 146.359 122.362  0.00  0.00    +0.000 OA
ATOM     21  H   DLU F 101     142.019 143.570 123.672  0.00  0.00    +0.000 HD
BRANCH  19  22
ATOM     22  CAN DLU F 101     143.541 144.879 124.377  0.00  0.00    +0.000 C 
BRANCH  22  28
ATOM     23  CAH DLU F 101     143.115 146.619 127.566  0.00  0.00    +0.000 A 
ATOM     24  CAI DLU F 101     143.518 146.346 126.273  0.00  0.00    +0.000 A 
ATOM     25  CAJ DLU F 101     141.964 144.534 127.662  0.00  0.00    +0.000 A 
ATOM     26  CAT DLU F 101     142.341 145.714 128.256  0.00  0.00    +0.000 A 
ATOM     27  CAU DLU F 101     142.367 144.272 126.372  0.00  0.00    +0.000 A 
ATOM     28  CAV DLU F 101     143.141 145.165 125.669  0.00  0.00    +0.000 A 
ATOM     29  FAF DLU F 101     141.969 145.955 129.429  0.00  0.00    +0.000 F 
ATOM     30  FAG DLU F 101     142.024 143.213 125.840  0.00  0.00    +0.000 F 
ENDBRANCH  22  28
ENDBRANCH  19  22
ENDBRANCH   8  18
BRANCH   7  31
ATOM     31  OAE DLU F 101     138.553 142.140 121.251  0.00  0.00    +0.000 OA
ATOM     32  H   DLU F 101     137.831 141.896 120.705  0.00  0.00    +0.000 HD
ENDBRANCH   7  31
TORSDOF 4
